data_56-TOPOS_105_Te3Cl2
_database_code_ICSD                 105
_audit_creation_date                2024-01-24
_audit_creation_method              ToposPro
_chemical_formula_structural        Te3Cl2
_chemical_name_systematic
;
Tellurium chloride (3/2). 
;
_chemical_formula_sum               'Cl2 Te3'
_citation_journal_abbrev            'Zeitschrift fuer Anorganische und Allgemeine Chemie'
_citation_year                      1976
_citation_journal_volume            422
_citation_page_first                17
_citation_page_last                 38
_citation_special_details
;
Title: Zur Kenntnis der Subhalogenide des Tellurs. File: YourCustomFi
leName1.cif. 
CENTAT: none
LIGAND: Te3Cl2[1D-]
ATOMLIG: Cl1#1 Cl2#
1 Te1#1 Te2#1 Te3#1
SIMPPAR: METH=Stand; INTRA=V
;
loop_
_publ_author_name
'Kniep R.'
'Mootz D.'
'Rabenau A.'
_cell_length_a                      10.136
_cell_length_b                      8.635
_cell_length_c                      7.039
_cell_angle_alpha                   90
_cell_angle_beta                    100.74
_cell_angle_gamma                   90
_cell_volume                        605.292
_cell_formula_units_z               4
_symmetry_space_group_name_h-m      'P 1 21/n 1'
_symmetry_int_tables_number         14
_refine_ls_r_factor_all             0
loop_
_space_group_symop_id
_space_group_symop_operation_xyz
1 x,y,z
2 1/2-x,1/2+y,1/2-z
3 -x,-y,-z
4 1/2+x,1/2-y,1/2+z
loop_
_atom_site_label
_atom_site_type_symbol
_atom_site_symmetry_multiplicity
_atom_site_fract_x
_atom_site_fract_y
_atom_site_fract_z
_atom_site_occupancy
Cl1 Cl 4 0.01600 0.48880 0.25810 1.0000
Cl2 Cl 4 0.16710 0.01170 0.94720 1.0000
Te1 Te 4 0.08550 0.25260 0.09620 1.0000
Te2 Te 4 0.17310 0.14700 0.47740 1.0000
Te3 Te 4 0.35090 0.33980 0.05430 1.0000
loop_
_topol_atom.id
_topol_atom.node_id
_topol_atom.atom_label
_topol_atom.element_symbol
1 1 Cl1 Cl # Cl1
2 2 Cl2 Cl # Cl2
3 3 Te1 Te # Te1
4 4 Te2 Te # Te2
5 5 Te3 Te # Te3
loop_
_topol_node.id
_topol_node.label
1 Cl1
2 Cl2
3 Te1
4 Te2
5 Te3
loop_
_topol_link.node_id_1
_topol_link.node_id_2
_topol_link.distance
_topol_link.symop_id_1
_topol_link.translation_1_x
_topol_link.translation_1_y
_topol_link.translation_1_z
_topol_link.symop_id_2
_topol_link.translation_2_x
_topol_link.translation_2_y
_topol_link.translation_2_z
_topol_link.type
_topol_link.multiplicity
_topol_link.voronoi_solid_angle
1 3 2.5008 1 0 0 0 1 0 0 0 v 4 19.79 # Cl1 Te1
1 3 3.3628 1 0 0 0 3 0 1 0 vw 4 11.01 # Cl1 Te1
1 5 3.4765 1 0 0 0 2 0 0 0 vw 4 10.35 # Cl1 Te3
1 1 3.4859 1 0 0 0 3 0 1 1 vw 2 10.35 # Cl1 Cl1
1 2 3.4895 1 0 0 0 2 0 0 1 vw 4 9.28 # Cl1 Cl2
1 4 3.5656 1 0 0 0 1 0 0 0 vw 4 5.30 # Cl1 Te2
1 1 3.5925 1 0 0 0 3 0 1 0 vw 2 5.21 # Cl1 Cl1
1 4 3.8470 1 0 0 0 4 -1 0 -1 vw 4 7.08 # Cl1 Te2
1 2 4.0041 1 0 0 0 4 -1 0 -1 vw 4 5.66 # Cl1 Cl2
1 4 4.0610 1 0 0 0 2 0 0 0 vw 4 4.84 # Cl1 Te2
1 5 4.0619 1 0 0 0 4 -1 0 0 vw 4 4.69 # Cl1 Te3
1 5 4.2200 1 0 0 0 3 0 1 0 vw 4 2.29 # Cl1 Te3
1 4 4.2849 1 0 0 0 3 0 1 1 vw 4 3.52 # Cl1 Te2
2 3 2.5366 1 0 0 0 1 0 0 1 v 4 18.87 # Cl2 Te1
2 5 3.3974 1 0 0 0 1 0 0 1 vw 4 7.71 # Cl2 Te3
2 3 3.4009 1 0 0 0 3 0 0 1 vw 4 10.68 # Cl2 Te1
2 4 3.5184 1 0 0 0 1 0 0 0 vw 4 10.06 # Cl2 Te2
2 4 3.5358 1 0 0 0 2 0 -1 1 vw 4 10.63 # Cl2 Te2
2 2 3.6065 1 0 0 0 3 0 0 2 vw 2 5.39 # Cl2 Cl2
2 5 3.8024 1 0 0 0 2 0 -1 0 vw 4 7.16 # Cl2 Te3
2 5 3.8455 1 0 0 0 2 0 -1 1 vw 4 6.45 # Cl2 Te3
2 5 4.0325 1 0 0 0 4 -1 0 0 vw 4 4.61 # Cl2 Te3
3 4 2.8163 1 0 0 0 1 0 0 0 v 4 15.94 # Te1 Te2
3 5 2.8612 1 0 0 0 1 0 0 0 v 4 15.44 # Te1 Te3
3 5 4.1786 1 0 0 0 4 -1 0 -1 vw 4 3.33 # Te1 Te3
3 4 4.1978 1 0 0 0 4 -1 0 -1 vw 4 3.07 # Te1 Te2
4 5 2.6693 1 0 0 0 2 0 -1 0 v 4 19.16 # Te2 Te3
4 5 3.4103 1 0 0 0 4 -1 0 0 vw 4 11.65 # Te2 Te3
4 5 4.4477 1 0 0 0 1 0 0 1 vw 4 2.86 # Te2 Te3
#End of data_56-TOPOS_105_Te3Cl2

