data_65-TOPOS_114_GdP5
_database_code_ICSD                 114
_audit_creation_date                2024-01-24
_audit_creation_method              ToposPro
_chemical_formula_structural        GdP5
_chemical_name_systematic
;
Gadolinium phosphide (1/5). 
;
_chemical_formula_sum               'Gd P5'
_citation_journal_abbrev            'Zeitschrift fuer Anorganische und Allgemeine Chemie'
_citation_year                      1976
_citation_journal_volume            422
_citation_page_first                226
_citation_page_last                 230
_citation_special_details
;
Title: Gadoliniumpentaphosphid Gd P5. File: YourCustomFileName1.cif. 

CENTAT: none
LIGAND: GdP5[3D-]
ATOMLIG: P1#1 P2#1 P3#1 Gd1#1
SIM
PPAR: METH=Stand; INTRA=V
;
loop_
_publ_author_name
'Menge G.'
'Von SCHNERING H.G.'
_cell_length_a                      4.928
_cell_length_b                      9.446
_cell_length_c                      5.37
_cell_angle_alpha                   90
_cell_angle_beta                    102.58
_cell_angle_gamma                   90
_cell_volume                        243.9718
_cell_formula_units_z               2
_symmetry_space_group_name_h-m      'P 1 21/m 1'
_symmetry_int_tables_number         11
_refine_ls_r_factor_all             0
loop_
_space_group_symop_id
_space_group_symop_operation_xyz
1 x,y,z
2 -x,1/2+y,-z
3 -x,-y,-z
4 x,1/2-y,z
loop_
_atom_site_label
_atom_site_type_symbol
_atom_site_symmetry_multiplicity
_atom_site_fract_x
_atom_site_fract_y
_atom_site_fract_z
_atom_site_occupancy
P1 P 4 0.38240 0.59120 0.04350 1.0000
P2 P 4 0.28680 0.53080 0.40290 1.0000
P3 P 2 0.28050 0.25000 0.89890 1.0000
Gd1 Gd 2 0.00960 0.25000 0.35100 1.0000
loop_
_topol_atom.id
_topol_atom.node_id
_topol_atom.atom_label
_topol_atom.element_symbol
1 1 P1 P # P1
2 2 P2 P # P2
3 3 P3 P # P3
4 4 Gd1 Gd # Gd1
loop_
_topol_node.id
_topol_node.label
1 P1
2 P2
3 P3
4 Gd1
loop_
_topol_link.node_id_1
_topol_link.node_id_2
_topol_link.distance
_topol_link.symop_id_1
_topol_link.translation_1_x
_topol_link.translation_1_y
_topol_link.translation_1_z
_topol_link.symop_id_2
_topol_link.translation_2_x
_topol_link.translation_2_y
_topol_link.translation_2_z
_topol_link.type
_topol_link.multiplicity
_topol_link.voronoi_solid_angle
1 2 2.1606 1 0 0 0 1 0 0 0 v 4 21.91 # P1 P2
1 1 2.1831 1 0 0 0 3 1 1 0 v 2 19.52 # P1 P1
1 3 2.2094 1 0 0 0 2 1 0 1 v 4 19.88 # P1 P3
1 4 2.9474 1 0 0 0 2 0 0 0 v 4 11.42 # P1 Gd1
1 1 3.0000 1 0 0 0 4 0 1 0 vw 2 6.27 # P1 P1
1 2 3.4169 1 0 0 0 1 0 0 -1 vw 4 5.20 # P1 P2
1 3 3.6685 1 0 0 0 2 0 0 1 vw 4 3.83 # P1 P3
1 2 3.8087 1 0 0 0 3 0 1 0 vw 4 3.37 # P1 P2
1 1 4.0773 1 0 0 0 3 0 1 0 vw 2 1.61 # P1 P1
2 2 2.2107 1 0 0 0 3 1 1 1 v 2 20.73 # P2 P2
2 4 2.9687 1 0 0 0 1 0 0 0 v 4 12.31 # P2 Gd1
2 4 3.0014 1 0 0 0 2 0 0 1 v 4 11.77 # P2 Gd1
2 2 3.2712 1 0 0 0 3 0 1 1 vw 2 7.63 # P2 P2
2 3 3.5715 1 0 0 0 2 0 0 1 vw 4 5.10 # P2 P3
2 3 3.7639 1 0 0 0 1 0 0 0 vw 4 1.90 # P2 P3
2 3 3.7848 1 0 0 0 1 0 0 -1 vw 4 1.80 # P2 P3
2 2 4.1411 1 0 0 0 4 0 1 0 vw 2 2.08 # P2 P2
3 4 2.9543 1 0 0 0 1 0 0 0 v 2 12.76 # P3 Gd1
3 4 3.0147 1 0 0 0 1 0 0 1 v 2 12.73 # P3 Gd1
#End of data_65-TOPOS_114_GdP5

