data_530-TOPOS_1385_In2Te5
_database_code_ICSD                 1385
_audit_creation_date                2024-01-24
_audit_creation_method              ToposPro
_chemical_formula_structural        In2Te5
_chemical_name_systematic
;
Indium telluride (2/5). 
;
_chemical_formula_sum               'In2 Te5'
_citation_journal_abbrev            'Acta Crystallographica B (24,1968-38,1982)'
_citation_year                      1978
_citation_journal_volume            34
_citation_page_first                41
_citation_page_last                 45
_citation_special_details
;
Title: Indium polytelluride In2 Te5 (II). File: YourCustomFileName1.c
if. 
CENTAT: In1 In2 In3
LIGAND: Te[M3]{1843} Te[M3]{1843} Te[M3]{1
843} Te[1D+] Te[1D+]
ATOMLIG: Te3#1 Te4#1 Te5#1 Te7#2 Te8#2 Te1#3 Te
2#4 Te6#5
SIMPPAR: METH=Stand; INTRA=V
;
loop_
_publ_author_name
'Walton P.D.'
'Sutherland H.H.'
'Hogg J.H.C.'
_cell_length_a                      16.66
_cell_length_b                      4.36
_cell_length_c                      41.34
_cell_angle_alpha                   90
_cell_angle_beta                    100.1
_cell_angle_gamma                   90
_cell_volume                        2956.304
_cell_formula_units_z               12
_symmetry_space_group_name_h-m      'C 1 2/c 1'
_symmetry_int_tables_number         15
_refine_ls_r_factor_all             0
loop_
_space_group_symop_id
_space_group_symop_operation_xyz
1 x,y,z
2 -x,y,1/2-z
3 -x,-y,-z
4 x,-y,1/2+z
5 1/2+x,1/2+y,z
6 1/2-x,1/2+y,1/2-z
7 1/2-x,1/2-y,-z
8 1/2+x,1/2-y,1/2+z
loop_
_atom_site_label
_atom_site_type_symbol
_atom_site_symmetry_multiplicity
_atom_site_fract_x
_atom_site_fract_y
_atom_site_fract_z
_atom_site_occupancy
In1 In 8 0.99370 0.05930 0.05570 1.0000
In2 In 8 0.13550 0.55840 0.11190 1.0000
In3 In 8 0.29650 0.12560 0.22020 1.0000
Te1 Te 8 0.03670 0.05880 0.12670 1.0000
Te2 Te 8 0.09230 0.55650 0.04060 1.0000
Te3 Te 8 0.30280 0.51000 0.13310 1.0000
Te4 Te 8 0.31450 0.09130 0.08070 1.0000
Te5 Te 8 0.33040 0.51070 0.02890 1.0000
Te6 Te 8 0.18470 0.62130 0.20820 1.0000
Te7 Te 8 0.44250 0.06360 0.19740 1.0000
Te8 Te 4 0.00000 0.15440 0.25000 1.0000
loop_
_topol_atom.id
_topol_atom.node_id
_topol_atom.atom_label
_topol_atom.element_symbol
1 1 In1 In # In1
2 2 In2 In # In2
3 3 In3 In # In3
4 4 Te1 Te # Te1
5 5 Te2 Te # Te2
6 6 Te3 Te # Te3
7 7 Te4 Te # Te4
8 8 Te5 Te # Te5
9 9 Te6 Te # Te6
10 10 Te7 Te # Te7
11 11 Te8 Te # Te8
loop_
_topol_node.id
_topol_node.label
1 In1
2 In2
3 In3
4 Te1
5 Te2
6 Te3
7 Te4
8 Te5
9 Te6
10 Te7
11 Te8
loop_
_topol_link.node_id_1
_topol_link.node_id_2
_topol_link.distance
_topol_link.symop_id_1
_topol_link.translation_1_x
_topol_link.translation_1_y
_topol_link.translation_1_z
_topol_link.symop_id_2
_topol_link.translation_2_x
_topol_link.translation_2_y
_topol_link.translation_2_z
_topol_link.type
_topol_link.multiplicity
_topol_link.voronoi_solid_angle
1 8 2.7598 1 0 0 0 5 0 -1 0 v 8 19.47 # In1 Te5
1 5 2.8543 1 0 0 0 1 1 0 0 v 8 18.26 # In1 Te2
1 5 2.8729 1 0 0 0 1 1 -1 0 v 8 18.26 # In1 Te2
1 4 2.8967 1 0 0 0 1 1 0 0 v 8 16.36 # In1 Te1
1 2 3.7133 1 0 0 0 1 1 0 0 vw 8 3.64 # In1 In2
1 2 3.7179 1 0 0 0 1 1 -1 0 vw 8 3.66 # In1 In2
1 7 3.9022 1 0 0 0 5 0 -1 0 vw 8 4.80 # In1 Te4
1 7 4.0551 1 0 0 0 5 0 0 0 vw 8 5.14 # In1 Te4
1 5 4.3252 1 0 0 0 3 1 1 0 vw 8 3.40 # In1 Te2
1 1 4.6754 1 0 0 0 3 2 0 0 vw 4 2.27 # In1 In1
2 6 2.7793 1 0 0 0 1 0 0 0 v 8 19.75 # In2 Te3
2 4 2.8604 1 0 0 0 1 0 0 0 v 8 18.45 # In2 Te1
2 4 2.8630 1 0 0 0 1 0 1 0 v 8 18.14 # In2 Te1
2 5 2.9090 1 0 0 0 1 0 0 0 v 8 16.22 # In2 Te2
2 9 3.9308 1 0 0 0 1 0 0 0 vw 8 7.55 # In2 Te6
2 7 4.1598 1 0 0 0 1 0 1 0 vw 8 4.28 # In2 Te4
3 10 2.7716 1 0 0 0 1 0 0 0 v 8 18.89 # In3 Te7
3 9 2.8394 1 0 0 0 1 0 0 0 v 8 18.40 # In3 Te6
3 9 2.8681 1 0 0 0 1 0 -1 0 v 8 18.65 # In3 Te6
3 9 2.9214 1 0 0 0 6 0 -1 0 v 8 16.52 # In3 Te6
3 3 3.8161 1 0 0 0 6 0 -1 0 vw 8 2.69 # In3 In3
3 11 3.9709 1 0 0 0 5 0 -1 0 vw 8 4.08 # In3 Te8
3 6 3.9897 1 0 0 0 1 0 0 0 vw 8 6.54 # In3 Te3
3 11 4.1064 1 0 0 0 5 0 0 0 vw 8 4.79 # In3 Te8
3 6 4.5070 1 0 0 0 1 0 -1 0 vw 8 2.48 # In3 Te3
4 6 3.9575 1 0 0 0 5 -1 -1 0 vw 8 8.23 # Te1 Te3
4 10 4.1564 1 0 0 0 5 -1 -1 0 vw 8 7.84 # Te1 Te7
4 10 4.1783 1 0 0 0 5 -1 0 0 vw 8 8.26 # Te1 Te7
4 9 4.2610 1 0 0 0 1 0 -1 0 vw 8 6.39 # Te1 Te6
4 7 4.3595 1 0 0 0 5 -1 -1 0 vw 8 3.65 # Te1 Te4
4 7 4.4990 1 0 0 0 5 -1 0 0 vw 8 3.60 # Te1 Te4
4 9 4.5313 1 0 0 0 1 0 0 0 vw 8 4.00 # Te1 Te6
5 8 3.8434 1 0 0 0 7 0 1 0 vw 8 9.74 # Te2 Te5
5 8 4.0843 1 0 0 0 1 0 0 0 vw 8 6.61 # Te2 Te5
5 8 4.1625 1 0 0 0 7 0 0 0 vw 8 7.67 # Te2 Te5
5 5 4.1651 1 0 0 0 3 0 1 0 vw 4 6.34 # Te2 Te2
5 7 4.2911 1 0 0 0 1 0 0 0 vw 8 4.64 # Te2 Te4
5 7 4.4426 1 0 0 0 1 0 1 0 vw 8 4.24 # Te2 Te4
6 7 2.8655 1 0 0 0 1 0 0 0 v 8 18.49 # Te3 Te4
6 7 3.3619 1 0 0 0 1 0 1 0 v 8 13.34 # Te3 Te4
6 10 3.7551 1 0 0 0 1 0 0 0 vw 8 9.64 # Te3 Te7
6 9 3.9860 1 0 0 0 1 0 0 0 vw 8 6.03 # Te3 Te6
6 10 4.0173 1 0 0 0 1 0 1 0 vw 8 8.21 # Te3 Te7
6 6 4.3600 1 0 0 0 1 0 1 0 vw 8 3.28 # Te3 Te3
7 8 2.8633 1 0 0 0 1 0 0 0 v 8 18.16 # Te4 Te5
7 8 3.3560 1 0 0 0 1 0 -1 0 v 8 13.04 # Te4 Te5
8 8 3.8724 1 0 0 0 7 0 1 0 vw 4 9.30 # Te5 Te5
8 8 3.9760 1 0 0 0 7 0 0 0 vw 4 8.69 # Te5 Te5
8 8 4.3600 1 0 0 0 1 0 1 0 vw 8 2.76 # Te5 Te5
9 10 3.9890 1 0 0 0 5 -1 0 0 vw 8 8.68 # Te6 Te7
9 11 4.2969 1 0 0 0 1 0 0 0 vw 8 4.42 # Te6 Te8
9 11 4.4409 1 0 0 0 1 0 1 0 vw 8 4.33 # Te6 Te8
10 11 2.8458 1 0 0 0 5 0 -1 0 v 8 18.72 # Te7 Te8
10 11 3.3986 1 0 0 0 5 0 0 0 v 8 12.87 # Te7 Te8
10 10 4.3600 1 0 0 0 1 0 1 0 vw 8 2.92 # Te7 Te7
#End of data_530-TOPOS_1385_In2Te5

