data_77-TOPOS_154_Ca2Sb
_database_code_ICSD                 154
_audit_creation_date                2024-01-24
_audit_creation_method              ToposPro
_chemical_formula_structural        Ca2Sb
_chemical_name_systematic
;
Calcium antimony (2/1). 
;
_chemical_formula_sum               'Ca2 Sb'
_citation_journal_abbrev            'Acta Crystallographica B (24,1968-38,1982)'
_citation_year                      1975
_citation_journal_volume            31
_citation_page_first                427
_citation_page_last                 430
_citation_special_details
;
Title: Etude structurale de Ca2 Sb. File: YourCustomFileName1.cif. 
;
loop_
_publ_author_name
'Hamon C.'
'Marchand R.'
'Haridon P.'
'Laurent Y.'
_cell_length_a                      4.69
_cell_length_b                      4.69
_cell_length_c                      16.39
_cell_angle_alpha                   90
_cell_angle_beta                    90
_cell_angle_gamma                   90
_cell_volume                        360.5161
_cell_formula_units_z               4
_symmetry_space_group_name_h-m      'I 4 m m'
_symmetry_int_tables_number         107
_refine_ls_r_factor_all             0
loop_
_space_group_symop_id
_space_group_symop_operation_xyz
1 x,y,z
2 -x,-y,z
3 -y,x,z
4 y,-x,z
5 -x,y,z
6 x,-y,z
7 y,x,z
8 -y,-x,z
9 1/2+x,1/2+y,1/2+z
10 1/2-x,1/2-y,1/2+z
11 1/2-y,1/2+x,1/2+z
12 1/2+y,1/2-x,1/2+z
13 1/2-x,1/2+y,1/2+z
14 1/2+x,1/2-y,1/2+z
15 1/2+y,1/2+x,1/2+z
16 1/2-y,1/2-x,1/2+z
loop_
_atom_site_label
_atom_site_type_symbol
_atom_site_symmetry_multiplicity
_atom_site_fract_x
_atom_site_fract_y
_atom_site_fract_z
_atom_site_occupancy
Ca1 Ca 2 0.00000 0.00000 0.32380 1.0000
Ca2 Ca 2 0.00000 0.00000 0.65800 1.0000
Ca3 Ca 4 0.00000 0.50000 0.00000 1.0000
Sb1 Sb 2 0.00000 0.00000 0.13220 1.0000
Sb2 Sb 2 0.00000 0.00000 0.85490 1.0000
loop_
_topol_atom.id
_topol_atom.node_id
_topol_atom.atom_label
_topol_atom.element_symbol
1 1 Ca1 Ca # Ca1
2 2 Ca2 Ca # Ca2
3 3 Ca3 Ca # Ca3
4 4 Sb1 Sb # Sb1
5 5 Sb2 Sb # Sb2
loop_
_topol_node.id
_topol_node.label
1 Ca1
2 Ca2
3 Ca3
4 Sb1
5 Sb2
loop_
_topol_link.node_id_1
_topol_link.node_id_2
_topol_link.distance
_topol_link.symop_id_1
_topol_link.translation_1_x
_topol_link.translation_1_y
_topol_link.translation_1_z
_topol_link.symop_id_2
_topol_link.translation_2_x
_topol_link.translation_2_y
_topol_link.translation_2_z
_topol_link.type
_topol_link.multiplicity
_topol_link.voronoi_solid_angle
1 4 3.1403 1 0 0 0 1 0 0 0 v 2 15.65 # Ca1 Sb1
1 5 3.3553 1 0 0 0 9 0 -1 -1 v 8 12.20 # Ca1 Sb2
1 3 3.7201 1 0 0 0 9 0 -1 0 v 8 5.69 # Ca1 Ca3
1 2 4.2875 1 0 0 0 9 0 -1 -1 v 8 2.61 # Ca1 Ca2
2 5 3.2272 1 0 0 0 1 0 0 0 v 2 14.73 # Ca2 Sb2
2 4 3.3432 1 0 0 0 9 -1 -1 0 v 8 11.38 # Ca2 Sb1
2 3 3.4936 1 0 0 0 9 -1 -1 0 v 8 6.85 # Ca2 Ca3
3 4 3.1928 1 0 0 0 1 0 0 0 v 8 9.69 # Ca3 Sb1
3 3 3.3163 1 0 0 0 3 0 0 0 v 8 9.34 # Ca3 Ca3
3 5 3.3399 1 0 0 0 1 0 0 -1 v 8 9.08 # Ca3 Sb2
#End of data_77-TOPOS_154_Ca2Sb

