data_50904-TOPOS_236253_SnBi4Te7
_database_code_ICSD                 236253
_audit_creation_date                2024-01-24
_audit_creation_method              ToposPro
_chemical_formula_structural        SnBi4Te7
_chemical_name_systematic
;
Tin tetrabismuth heptatelluride. 
;
_chemical_formula_sum               'Bi4 Sn Te7'
_citation_journal_abbrev            'Zeitschrift fuer Anorganische und Allgemeine Chemie'
_citation_year                      2012
_citation_journal_volume            638
_citation_page_first                2640
_citation_page_last                 2647
_citation_special_details
;
Title: Thermoelectric properties of stoichiometric compounds in the (
Sn Te)(x) (Bi2Te3)(y) system. File: YourCustomFileName16.cif. 
CENTA
T: Sn1 Bi1 Bi2
LIGAND: Te[M6]{1843} Te[M6]{1843} Te[2D+]
ATOMLIG: T
e3#1 Te4#1 Te1#2 Te2#3
SIMPPAR: METH=Stand; INTRA=V
;
loop_
_publ_author_name
'Kuropatwa BRYAN A.'
'Kleinke HOLGER'
_cell_length_a                      4.4037
_cell_length_b                      4.4037
_cell_length_c                      24.0671
_cell_angle_alpha                   90
_cell_angle_beta                    90
_cell_angle_gamma                   120
_cell_volume                        404.194
_cell_formula_units_z               1
_symmetry_space_group_name_h-m      'P -3 m 1'
_symmetry_int_tables_number         164
_refine_ls_r_factor_all             0
loop_
_space_group_symop_id
_space_group_symop_operation_xyz
1 x,y,z
2 -y,x-y,z
3 -x+y,-x,z
4 x-y,-y,-z
5 -x,-x+y,-z
6 y,x,-z
7 -x,-y,-z
8 y,-x+y,-z
9 x-y,x,-z
10 -x+y,y,z
11 x,x-y,z
12 -y,-x,z
loop_
_atom_type_symbol
_atom_type_oxidation_number
Sn2+ 2
Te2- -2
Bi3+ 3
loop_
_atom_site_label
_atom_site_type_symbol
_atom_site_symmetry_multiplicity
_atom_site_fract_x
_atom_site_fract_y
_atom_site_fract_z
_atom_site_occupancy
Sn1 Sn2+ 1 0.00000 0.00000 0.00000 1.0000
Te1 Te2- 1 0.00000 0.00000 0.50000 1.0000
Te2 Te2- 2 0.33333 0.66667 0.07250 1.0000
Te3 Te2- 2 0.00000 0.00000 0.24350 1.0000
Te4 Te2- 2 0.33333 0.66667 0.33400 1.0000
Bi1 Bi3+ 2 0.33333 0.66667 0.83290 1.0000
Bi2 Bi3+ 2 0.33333 0.66667 0.58730 1.0000
loop_
_topol_atom.id
_topol_atom.node_id
_topol_atom.atom_label
_topol_atom.element_symbol
1 1 Sn1 Sn # Sn1
2 2 Te1 Te # Te1
3 3 Te2 Te # Te2
4 4 Te3 Te # Te3
5 5 Te4 Te # Te4
6 6 Bi1 Bi # Bi1
7 7 Bi2 Bi # Bi2
loop_
_topol_node.id
_topol_node.label
1 Sn1
2 Te1
3 Te2
4 Te3
5 Te4
6 Bi1
7 Bi2
loop_
_topol_link.node_id_1
_topol_link.node_id_2
_topol_link.distance
_topol_link.symop_id_1
_topol_link.translation_1_x
_topol_link.translation_1_y
_topol_link.translation_1_z
_topol_link.symop_id_2
_topol_link.translation_2_x
_topol_link.translation_2_y
_topol_link.translation_2_z
_topol_link.type
_topol_link.multiplicity
_topol_link.voronoi_solid_angle
1 3 3.0836 1 0 0 0 4 0 1 0 v 6 16.67 # Sn1 Te2
2 7 3.2983 1 0 0 0 4 0 1 1 v 6 14.73 # Te1 Bi2
2 2 4.4037 1 0 0 0 1 1 1 0 vw 3 1.93 # Te1 Te1
3 6 3.4129 1 0 0 0 4 1 2 1 v 6 13.73 # Te2 Bi1
4 6 3.1377 1 0 0 0 4 0 1 1 v 6 16.39 # Te3 Bi1
4 5 3.3479 1 0 0 0 1 0 0 0 v 6 14.28 # Te3 Te4
5 7 3.1704 1 0 0 0 4 1 2 1 v 6 16.02 # Te4 Bi2
5 5 4.4037 1 0 0 0 1 1 1 0 vw 6 1.51 # Te4 Te4
6 6 4.4037 1 0 0 0 1 1 1 0 vw 6 1.61 # Bi1 Bi1
#End of data_50904-TOPOS_236253_SnBi4Te7

