data_102-TOPOS_239_Cu3Se2
_database_code_ICSD                 239
_audit_creation_date                2024-01-24
_audit_creation_method              ToposPro
_chemical_formula_structural        Cu3Se2
_chemical_name_systematic
;
Copper selenide (3/2). 
;
_chemical_formula_sum               'Cu3 Se2'
_citation_journal_abbrev            'Canadian Journal of Chemistry'
_citation_year                      1976
_citation_journal_volume            54
_citation_page_first                841
_citation_page_last                 848
_citation_special_details
;
Title: Crystal structures of Cu1.8 Se, Cu3 Se2, alpha- and gamma-Cu S
e2, and Cu Se2II. File: YourCustomFileName1.cif. 
CENTAT: Cu1 Cu2
L
IGAND: Se[M6]{1512}
ATOMLIG: Se1#1
SIMPPAR: METH=Stand; INTRA=V
;
loop_
_publ_author_name
'Heyding R.'
'Maclaren MURRAY R.'
_cell_length_a                      6.4024
_cell_length_b                      6.4024
_cell_length_c                      4.2786
_cell_angle_alpha                   90
_cell_angle_beta                    90
_cell_angle_gamma                   90
_cell_volume                        175.3829
_cell_formula_units_z               2
_symmetry_space_group_name_h-m      'P -4 21 m'
_symmetry_int_tables_number         113
_refine_ls_r_factor_all             0
loop_
_space_group_symop_id
_space_group_symop_operation_xyz
1 x,y,z
2 -x,-y,z
3 1/2+x,1/2-y,-z
4 1/2-x,1/2+y,-z
5 1/2+y,1/2+x,z
6 1/2-y,1/2-x,z
7 -y,x,-z
8 y,-x,-z
loop_
_atom_site_label
_atom_site_type_symbol
_atom_site_symmetry_multiplicity
_atom_site_fract_x
_atom_site_fract_y
_atom_site_fract_z
_atom_site_occupancy
Cu1 Cu 2 0.00000 0.00000 0.00000 1.0000
Cu2 Cu 4 0.64700 0.85300 0.21900 1.0000
Se1 Se 4 0.27200 0.77200 0.26400 1.0000
loop_
_topol_atom.id
_topol_atom.node_id
_topol_atom.atom_label
_topol_atom.element_symbol
1 1 Cu1 Cu # Cu1
2 2 Cu2 Cu # Cu2
3 3 Se1 Se # Se1
loop_
_topol_node.id
_topol_node.label
1 Cu1
2 Cu2
3 Se1
loop_
_topol_link.node_id_1
_topol_link.node_id_2
_topol_link.distance
_topol_link.symop_id_1
_topol_link.translation_1_x
_topol_link.translation_1_y
_topol_link.translation_1_z
_topol_link.symop_id_2
_topol_link.translation_2_x
_topol_link.translation_2_y
_topol_link.translation_2_z
_topol_link.type
_topol_link.multiplicity
_topol_link.voronoi_solid_angle
1 3 2.5376 1 0 0 0 2 0 1 0 v 8 12.76 # Cu1 Se1
1 2 2.6214 1 0 0 0 2 1 1 0 v 8 10.85 # Cu1 Cu2
2 3 2.3562 1 0 0 0 3 0 1 0 v 4 16.73 # Cu2 Se1
2 3 2.4638 1 0 0 0 2 1 2 0 v 8 14.26 # Cu2 Se1
2 3 2.4848 1 0 0 0 3 0 1 1 v 4 20.28 # Cu2 Se1
2 2 2.6620 1 0 0 0 2 1 2 0 v 2 11.38 # Cu2 Cu2
#End of data_102-TOPOS_239_Cu3Se2

