data_52944-TOPOS_245611_CaGe2
_database_code_ICSD                 245611
_audit_creation_date                2024-01-24
_audit_creation_method              ToposPro
_chemical_formula_structural        CaGe2
_chemical_name_systematic
;
Calcium digermanide - alpha. 
;
_chemical_formula_sum               'Ca Ge2'
_citation_journal_abbrev            'Journal of Solid State Chemistry'
_citation_year                      2007
_citation_journal_volume            180
_citation_page_first                1575
_citation_page_last                 1581
_citation_special_details
;
Title: Synthesis, structure and electronic structure of a new polymor
ph of Ca Ge2. File: YourCustomFileName17.cif. 
;
loop_
_publ_author_name
'Tobash P.H.'
'Bobev S.'
_cell_length_a                      3.9966
_cell_length_b                      3.9966
_cell_length_c                      10.211
_cell_angle_alpha                   90
_cell_angle_beta                    90
_cell_angle_gamma                   120
_cell_volume                        141.2473
_cell_formula_units_z               2
_symmetry_space_group_name_h-m      'P 63 m c'
_symmetry_int_tables_number         186
_refine_ls_r_factor_all             0
loop_
_space_group_symop_id
_space_group_symop_operation_xyz
1 x,y,z
2 -x,-y,1/2+z
3 -y,x-y,z
4 -x+y,-x,z
5 x-y,x,1/2+z
6 y,-x+y,1/2+z
7 -x+y,y,z
8 x,x-y,z
9 -y,-x,z
10 y,x,1/2+z
11 -x,-x+y,1/2+z
12 x-y,-y,1/2+z
loop_
_atom_type_symbol
_atom_type_oxidation_number
Ca2+ 2
Ge1- -1
loop_
_atom_site_label
_atom_site_type_symbol
_atom_site_symmetry_multiplicity
_atom_site_fract_x
_atom_site_fract_y
_atom_site_fract_z
_atom_site_occupancy
Ca1 Ca2+ 2 0.33333 0.66667 0.29270 1.0000
Ge1 Ge1- 2 0.33333 0.66667 0.60431 1.0000
Ge2 Ge1- 2 0.00000 0.00000 0.00000 1.0000
loop_
_topol_atom.id
_topol_atom.node_id
_topol_atom.atom_label
_topol_atom.element_symbol
1 1 Ca1 Ca # Ca1
2 2 Ge1 Ge # Ge1
3 3 Ge2 Ge # Ge2
loop_
_topol_node.id
_topol_node.label
1 Ca1
2 Ge1
3 Ge2
loop_
_topol_link.node_id_1
_topol_link.node_id_2
_topol_link.distance
_topol_link.symop_id_1
_topol_link.translation_1_x
_topol_link.translation_1_y
_topol_link.translation_1_z
_topol_link.symop_id_2
_topol_link.translation_2_x
_topol_link.translation_2_y
_topol_link.translation_2_z
_topol_link.type
_topol_link.multiplicity
_topol_link.voronoi_solid_angle
1 2 3.0041 1 0 0 0 2 1 2 -1 v 6 13.28 # Ca1 Ge1
1 3 3.1313 1 0 0 0 2 1 1 0 v 6 11.49 # Ca1 Ge2
1 2 3.1818 1 0 0 0 1 0 0 0 v 2 5.80 # Ca1 Ge1
1 1 3.9966 1 0 0 0 1 1 1 0 v 6 2.57 # Ca1 Ca1
2 3 2.5414 1 0 0 0 2 0 1 0 v 6 18.08 # Ge1 Ge2
#End of data_52944-TOPOS_245611_CaGe2

