data_140-TOPOS_351_KCeS2
_database_code_ICSD                 351
_audit_creation_date                2024-01-24
_audit_creation_method              ToposPro
_chemical_formula_structural        KCeS2
_chemical_name_systematic
;
Potassium cerium sulfide. 
;
_chemical_formula_sum               'Ce K S2'
_citation_journal_abbrev            'Acta Crystallographica B (24,1968-38,1982)'
_citation_year                      1976
_citation_journal_volume            32
_citation_page_first                1856
_citation_page_last                 1858
_citation_special_details
;
Title: The crystal structure of K Ce S2. Space Group: R -3 m H->R -3 
m. File: YourCustomFileName1.cif. 
CENTAT: K1 Ce1
LIGAND: S[M6]{136
0}
ATOMLIG: S1#1
SIMPPAR: METH=Stand; INTRA=V
;
loop_
_publ_author_name
'Plug C.'
'Verschoor G.C.'
_cell_length_a                      4.228
_cell_length_b                      4.228
_cell_length_c                      21.8
_cell_angle_alpha                   90
_cell_angle_beta                    90
_cell_angle_gamma                   120
_cell_volume                        337.487
_cell_formula_units_z               3
_symmetry_space_group_name_h-m      'R -3 m'
_symmetry_int_tables_number         166
_refine_ls_r_factor_all             0
loop_
_space_group_symop_id
_space_group_symop_operation_xyz
1 x,y,z
2 -y,x-y,z
3 -x+y,-x,z
4 x-y,-y,-z
5 -x,-x+y,-z
6 y,x,-z
7 -x,-y,-z
8 y,-x+y,-z
9 x-y,x,-z
10 -x+y,y,z
11 x,x-y,z
12 -y,-x,z
13 2/3+x,1/3+y,1/3+z
14 1/3+x,2/3+y,2/3+z
15 2/3-y,1/3+x-y,1/3+z
16 1/3-y,2/3+x-y,2/3+z
17 2/3-x+y,1/3-x,1/3+z
18 1/3-x+y,2/3-x,2/3+z
19 2/3+x-y,1/3-y,1/3-z
20 1/3+x-y,2/3-y,2/3-z
21 2/3-x,1/3-x+y,1/3-z
22 1/3-x,2/3-x+y,2/3-z
23 2/3+y,1/3+x,1/3-z
24 1/3+y,2/3+x,2/3-z
25 2/3-x,1/3-y,1/3-z
26 1/3-x,2/3-y,2/3-z
27 2/3+y,1/3-x+y,1/3-z
28 1/3+y,2/3-x+y,2/3-z
29 2/3+x-y,1/3+x,1/3-z
30 1/3+x-y,2/3+x,2/3-z
31 2/3-x+y,1/3+y,1/3+z
32 1/3-x+y,2/3+y,2/3+z
33 2/3+x,1/3+x-y,1/3+z
34 1/3+x,2/3+x-y,2/3+z
35 2/3-y,1/3-x,1/3+z
36 1/3-y,2/3-x,2/3+z
loop_
_atom_type_symbol
_atom_type_oxidation_number
S2- -2
K1+ 1
Ce3+ 3
loop_
_atom_site_label
_atom_site_type_symbol
_atom_site_symmetry_multiplicity
_atom_site_fract_x
_atom_site_fract_y
_atom_site_fract_z
_atom_site_occupancy
S1 S2- 6 0.00000 0.00000 0.26346 1.0000
K1 K1+ 3 0.00000 0.00000 0.50000 1.0000
Ce1 Ce3+ 3 0.00000 0.00000 0.00000 1.0000
loop_
_topol_atom.id
_topol_atom.node_id
_topol_atom.atom_label
_topol_atom.element_symbol
1 1 S1 S # S1
2 2 K1 K # K1
3 3 Ce1 Ce # Ce1
loop_
_topol_node.id
_topol_node.label
1 S1
2 K1
3 Ce1
loop_
_topol_link.node_id_1
_topol_link.node_id_2
_topol_link.distance
_topol_link.symop_id_1
_topol_link.translation_1_x
_topol_link.translation_1_y
_topol_link.translation_1_z
_topol_link.symop_id_2
_topol_link.translation_2_x
_topol_link.translation_2_y
_topol_link.translation_2_z
_topol_link.type
_topol_link.multiplicity
_topol_link.voronoi_solid_angle
1 3 2.8773 1 0 0 0 13 -1 0 0 v 18 16.62 # S1 Ce1
1 2 3.2266 1 0 0 0 14 0 0 -1 v 18 14.13 # S1 K1
1 1 3.9038 1 0 0 0 20 0 0 0 vw 9 1.55 # S1 S1
2 2 4.2280 1 0 0 0 1 0 1 0 vw 9 2.49 # K1 K1
#End of data_140-TOPOS_351_KCeS2

