data_14659-TOPOS_51505_Ag(SnF6)
_database_code_ICSD                 51505
_audit_creation_date                2024-01-24
_audit_creation_method              ToposPro
_chemical_formula_structural        Ag(SnF6)
_chemical_name_systematic
;
Silver hexafluorostannate. 
;
_chemical_formula_sum               'Ag F6 Sn'
_citation_journal_abbrev            'Zeitschrift fuer Anorganische und Allgemeine Chemie'
_citation_year                      2001
_citation_journal_volume            627
_citation_page_first                445
_citation_page_last                 452
_citation_special_details
;
Title: Synthese und Kristallstruktur von Silber(II)-Fluoriden Ag M(IV
) F6 (M(IV) =Sn, Ti, Pb, Pd, Pt, Rh). File: YourCustomFileName4.cif. 

CENTAT: Ag1 Sn1
LIGAND: F[M2]{1809} F[M2]{1809} F[M2]{1809}
ATOML
IG: F1#1 F2#2 F3#3
SIMPPAR: METH=Stand; INTRA=V
;
loop_
_publ_author_name
'Fischer R.'
'Mueller B.G.'
_cell_length_a                      5.204
_cell_length_b                      5.253
_cell_length_c                      5.632
_cell_angle_alpha                   115.67
_cell_angle_beta                    89.3
_cell_angle_gamma                   118.78
_cell_volume                        117.8073
_cell_formula_units_z               1
_symmetry_space_group_name_h-m      'P -1'
_symmetry_int_tables_number         2
_refine_ls_r_factor_all             0
loop_
_space_group_symop_id
_space_group_symop_operation_xyz
1 x,y,z
2 -x,-y,-z
loop_
_atom_type_symbol
_atom_type_oxidation_number
F1- -1
Ag2+ 2
Sn4+ 4
loop_
_atom_site_label
_atom_site_type_symbol
_atom_site_symmetry_multiplicity
_atom_site_fract_x
_atom_site_fract_y
_atom_site_fract_z
_atom_site_occupancy
F1 F1- 2 0.25080 0.85370 0.73670 1.0000
F2 F1- 2 0.86440 0.12430 0.73760 1.0000
F3 F1- 2 0.57580 0.43990 0.72320 1.0000
Ag1 Ag2+ 1 0.00000 0.00000 0.00000 1.0000
Sn1 Sn4+ 1 0.50000 0.00000 0.50000 1.0000
loop_
_topol_atom.id
_topol_atom.node_id
_topol_atom.atom_label
_topol_atom.element_symbol
1 1 F1 F # F1
2 2 F2 F # F2
3 3 F3 F # F3
4 4 Ag1 Ag # Ag1
5 5 Sn1 Sn # Sn1
loop_
_topol_node.id
_topol_node.label
1 F1
2 F2
3 F3
4 Ag1
5 Sn1
loop_
_topol_link.node_id_1
_topol_link.node_id_2
_topol_link.distance
_topol_link.symop_id_1
_topol_link.translation_1_x
_topol_link.translation_1_y
_topol_link.translation_1_z
_topol_link.symop_id_2
_topol_link.translation_2_x
_topol_link.translation_2_y
_topol_link.translation_2_z
_topol_link.type
_topol_link.multiplicity
_topol_link.voronoi_solid_angle
1 5 1.9837 1 0 0 0 1 0 1 0 v 2 16.36 # F1 Sn1
1 4 2.1034 1 0 0 0 1 0 1 1 v 2 17.83 # F1 Ag1
1 3 2.7447 1 0 0 0 1 0 1 0 vw 2 6.21 # F1 F3
1 2 2.8001 1 0 0 0 1 0 1 0 vw 2 5.76 # F1 F2
1 2 2.9681 1 0 0 0 1 -1 1 0 vw 2 4.44 # F1 F2
1 3 3.0953 1 0 0 0 1 -1 0 0 vw 2 4.51 # F1 F3
1 1 3.1587 1 0 0 0 2 0 1 1 vw 1 7.09 # F1 F1
1 1 3.2071 1 0 0 0 2 1 2 2 vw 1 6.76 # F1 F1
1 3 3.3143 1 0 0 0 1 0 0 0 vw 2 6.34 # F1 F3
1 2 3.3648 1 0 0 0 1 -1 0 0 vw 2 5.58 # F1 F2
2 5 1.9814 1 0 0 0 1 0 0 0 v 2 16.40 # F2 Sn1
2 4 2.1008 1 0 0 0 1 1 0 1 v 2 17.89 # F2 Ag1
2 3 2.7436 1 0 0 0 1 0 0 0 vw 2 6.73 # F2 F3
2 2 3.0845 1 0 0 0 2 2 0 1 vw 1 7.15 # F2 F2
2 3 3.1207 1 0 0 0 1 0 -1 0 vw 2 3.95 # F2 F3
2 3 3.2650 1 0 0 0 1 1 0 0 vw 2 6.29 # F2 F3
2 2 3.3073 1 0 0 0 2 2 1 2 vw 1 6.27 # F2 F2
3 5 1.9218 1 0 0 0 1 0 0 0 v 2 17.24 # F3 Sn1
3 4 2.4117 1 0 0 0 1 1 1 1 v 2 14.14 # F3 Ag1
3 3 3.0406 1 0 0 0 2 1 1 1 vw 1 8.24 # F3 F3
3 3 3.0751 1 0 0 0 2 1 1 2 vw 1 9.21 # F3 F3
#End of data_14659-TOPOS_51505_Ag(SnF6)

