data_17392-TOPOS_58646_BaCu
_database_code_ICSD                 58646
_audit_creation_date                2024-01-24
_audit_creation_method              ToposPro
_chemical_formula_structural        BaCu
_chemical_name_systematic
;
Barium copper (1/1). 
;
_chemical_formula_sum               'Ba Cu'
_citation_journal_abbrev            'Acta Crystallographica B (24,1968-38,1982)'
_citation_year                      1980
_citation_journal_volume            36
_citation_page_first                1288
_citation_page_last                 1291
_citation_special_details
;
Title: The structure of BaCu and SrCu. File: YourCustomFileName5.cif.
 
;
loop_
_publ_author_name
'Fornasini MARIA L.'
'Merlo FRANCO'
_cell_length_a                      4.499
_cell_length_b                      4.499
_cell_length_c                      16.25
_cell_angle_alpha                   90
_cell_angle_beta                    90
_cell_angle_gamma                   120
_cell_volume                        284.8499
_cell_formula_units_z               4
_symmetry_space_group_name_h-m      'P 63/m m c'
_symmetry_int_tables_number         194
_refine_ls_r_factor_all             0
loop_
_space_group_symop_id
_space_group_symop_operation_xyz
1 x,y,z
2 -x,-y,1/2+z
3 -y,x-y,z
4 -x+y,-x,z
5 x-y,x,1/2+z
6 y,-x+y,1/2+z
7 x-y,-y,-z
8 -x,-x+y,-z
9 y,x,-z
10 -y,-x,1/2-z
11 x,x-y,1/2-z
12 -x+y,y,1/2-z
13 -x,-y,-z
14 x,y,1/2-z
15 y,-x+y,-z
16 x-y,x,-z
17 -x+y,-x,1/2-z
18 -y,x-y,1/2-z
19 -x+y,y,z
20 x,x-y,z
21 -y,-x,z
22 y,x,1/2+z
23 -x,-x+y,1/2+z
24 x-y,-y,1/2+z
loop_
_atom_site_label
_atom_site_type_symbol
_atom_site_symmetry_multiplicity
_atom_site_fract_x
_atom_site_fract_y
_atom_site_fract_z
_atom_site_occupancy
Cu1 Cu 2 0.00000 0.00000 0.25000 1.0000
Cu2 Cu 2 0.33333 0.66667 0.75000 1.0000
Ba1 Ba 4 0.33333 0.66667 0.12170 1.0000
loop_
_topol_atom.id
_topol_atom.node_id
_topol_atom.atom_label
_topol_atom.element_symbol
1 1 Cu1 Cu # Cu1
2 2 Cu2 Cu # Cu2
3 3 Ba1 Ba # Ba1
loop_
_topol_node.id
_topol_node.label
1 Cu1
2 Cu2
3 Ba1
loop_
_topol_link.node_id_1
_topol_link.node_id_2
_topol_link.distance
_topol_link.symop_id_1
_topol_link.translation_1_x
_topol_link.translation_1_y
_topol_link.translation_1_z
_topol_link.symop_id_2
_topol_link.translation_2_x
_topol_link.translation_2_y
_topol_link.translation_2_z
_topol_link.type
_topol_link.multiplicity
_topol_link.voronoi_solid_angle
1 2 2.5975 1 0 0 0 2 0 1 -1 v 6 16.11 # Cu1 Cu2
1 3 3.3307 1 0 0 0 1 0 0 0 v 12 8.61 # Cu1 Ba1
2 3 3.3307 1 0 0 0 2 1 2 0 v 12 8.61 # Cu2 Ba1
3 3 4.4990 1 0 0 0 1 0 -1 0 v 12 4.05 # Ba1 Ba1
3 3 4.7319 1 0 0 0 7 1 1 0 v 6 7.57 # Ba1 Ba1
#End of data_17392-TOPOS_58646_BaCu

