data_83098-TOPOS_653719_Bi
_database_code_ICSD                 653719
_audit_creation_date                2024-01-24
_audit_creation_method              ToposPro
_chemical_formula_structural        Bi
_chemical_name_systematic
;
Bismuth - II (HP). 
;
_chemical_formula_sum               Bi
_citation_journal_abbrev            'Physics Letters A'
_citation_year                      1967
_citation_journal_volume            24
_citation_page_first                714
_citation_page_last                 717
_citation_special_details
;
Title: The crystal structure of bismuth-II at 26 kbar. File: YourCust
omFileName25.cif. 
;
loop_
_publ_author_name
'Brugger R.M.'
'Bennion R.B.'
'Worlton T.G.'
_cell_length_a                      6.674
_cell_length_b                      6.117
_cell_length_c                      3.304
_cell_angle_alpha                   90
_cell_angle_beta                    110.33
_cell_angle_gamma                   90
_cell_volume                        126.4829
_cell_formula_units_z               4
_symmetry_space_group_name_h-m      'C 1 2/m 1'
_symmetry_int_tables_number         12
_refine_ls_r_factor_all             0
loop_
_space_group_symop_id
_space_group_symop_operation_xyz
1 x,y,z
2 -x,y,-z
3 -x,-y,-z
4 x,-y,z
5 1/2+x,1/2+y,z
6 1/2-x,1/2+y,-z
7 1/2-x,1/2-y,-z
8 1/2+x,1/2-y,z
loop_
_atom_site_label
_atom_site_type_symbol
_atom_site_symmetry_multiplicity
_atom_site_fract_x
_atom_site_fract_y
_atom_site_fract_z
_atom_site_occupancy
Bi1 Bi 4 0.25000 0.00000 0.12500 1.0000
loop_
_topol_atom.id
_topol_atom.node_id
_topol_atom.atom_label
_topol_atom.element_symbol
1 1 Bi1 Bi # Bi1
loop_
_topol_node.id
_topol_node.label
1 Bi1
loop_
_topol_link.node_id_1
_topol_link.node_id_2
_topol_link.distance
_topol_link.symop_id_1
_topol_link.translation_1_x
_topol_link.translation_1_y
_topol_link.translation_1_z
_topol_link.symop_id_2
_topol_link.translation_2_x
_topol_link.translation_2_y
_topol_link.translation_2_z
_topol_link.type
_topol_link.multiplicity
_topol_link.voronoi_solid_angle
1 1 3.1468 1 0 0 0 2 0 0 0 v 2 15.73 # Bi1 Bi1
1 1 3.1681 1 0 0 0 6 0 -1 0 v 4 14.54 # Bi1 Bi1
1 1 3.3040 1 0 0 0 1 0 0 -1 v 4 11.62 # Bi1 Bi1
1 1 3.3956 1 0 0 0 2 1 0 1 v 2 11.84 # Bi1 Bi1
1 1 3.7058 1 0 0 0 2 1 0 0 v 2 7.10 # Bi1 Bi1
1 1 3.9364 1 0 0 0 6 0 -1 1 v 4 4.61 # Bi1 Bi1
1 1 4.3146 1 0 0 0 2 0 0 -1 vw 2 1.66 # Bi1 Bi1
#End of data_83098-TOPOS_653719_Bi

